  Granular Flow Simulation 

       12 atoms 
       2 atom types 
       2 nutrients

   0.000000e-04   2.000000e-03  xlo xhi 
   0.000000e-04   4.000000e-04  ylo yhi 
   0.000000e-04   1.000000e-03  zlo zhi 

 Atoms

     1 1 1.0e-6 150 5.0e-04 1e-06 3.0e-04 1.2e-6  
     2 1 1.0e-6 150 5.0e-04 1e-06 7.0e-04 1.2e-6  
     3 1 1.0e-6 150 10.0e-04 1e-06 3.0e-04 1.2e-6  
     4 1 1.0e-6 150 10.0e-04 1e-06 7.0e-04 1.2e-6  
     5 1 1.0e-6 150 15.0e-04 1e-06 3.0e-04 1.2e-6
     6 1 1.0e-6 150 15.0e-04 1e-06 7.0e-04 1.2e-6  
     7 2 1.0e-8 150 5.0e-04 1e-06 4.0e-04 1.2e-8  
     8 2 1.0e-8 150 5.0e-04 1e-06 6.0e-04 1.2e-8  
     9 2 1.0e-8 150 10.0e-04 1e-06 4.0e-04 1.2e-8  
     10 2 1.0e-8 150 10.0e-04 1e-06 6.0e-04 1.2e-8  
     11 2 1.0e-8 150 15.0e-04 1e-06 4.0e-04 1.2e-8
     12 2 1.0e-8 150 15.0e-04 1e-06 6.0e-04 1.2e-8

 Nutrients

     1 sub l pp pp nd 1e-4 1e-4
     2 o2 l pp pp nd 1e-4 1e-4

 Type Name

     1 het
     2 eps

 Diffusion Coeffs
    
     sub 1.6e-9
     o2 2.30e-9

 Ks
     
     het 3.5e-5 0
     eps 0 0 

 Growth Rate

     het 0.00028 
     eps 0.0001

 Yield
    
     het 0.61
     eps 0.18

 Maintenance
 
     het 0
     eps 0

 Decay

     het 0
     eps 0



