  Granular Flow Simulation 

       32 atoms 
       2 atom types 
       2 nutrients

   0.000000e-04   2.000000e-04  xlo xhi 
   0.000000e-04   4.000000e-05  ylo yhi 
   0.000000e-04   1.000000e-04  zlo zhi 

 Atoms

     1 1 1.0e-6 120 3.0e-05 1.5e-05 1e-06 1.2e-6
     2 2 1.0e-8 150 3.0e-05 2.5e-05 1e-06 1.2e-8
     3 2 1.0e-8 150 6.0e-05 1.5e-05 1e-06 1.2e-8
     4 1 1.0e-6 120 6.0e-05 2.5e-05 1e-06 1.2e-6 
     5 1 1.0e-6 120 10.0e-05 1.5e-05 1e-06 1.2e-6
     6 2 1.0e-8 150 10.0e-05 2.5e-05 1e-06 1.2e-8
     7 2 1.0e-8 150 13.0e-05 1.5e-05 1e-06 1.2e-8
     8 1 1.0e-6 120 13.0e-05 2.5e-05 1e-06 1.2e-6
     9 1 1.0e-6 120 16.0e-05 1.5e-05 1e-06 1.2e-6
     10 2 1.0e-8 150 16.0e-05 2.5e-05 1e-06 1.2e-8
     11 2 1.0e-8 150 1.5.0e-05 1.5e-05 1e-06 1.2e-8
     12 1 1.0e-6 120 1.5e-05 2.5e-05 1e-06 1.2e-6
     13 1 1.0e-6 120 4.5.0e-05 1.5e-05 1e-06 1.2e-6
     14 2 1.0e-8 150 4.5e-05 2.5e-05 1e-06 1.2e-8
     15 2 1.0e-8 150 8.0e-05 1.5e-05 1e-06 1.2e-8
     16 1 1.0e-6 120 8.0e-05 2.5e-05 1e-06 1.2e-6
     17 1 1.0e-6 120 11.5e-05 1.5e-05 1e-06 1.2e-6 
     18 2 1.0e-8 150 11.5e-05 2.5e-05 1e-06 1.2e-8 
     19 2 1.0e-8 150 14.5e-05 1.5e-05 1e-06 1.2e-8
     20 1 1.0e-6 120 14.5e-05 2.5e-05 1e-06 1.2e-6
     21 1 1.0e-6 120 18.0e-05 1.5e-05 1e-06 1.2e-6
     22 2 1.0e-8 150 18.0e-05 2.5e-05 1e-06 1.2e-8
     23 1 1.0e-6 120 3.0e-05 1.0e-05 1e-06 1.2e-6
     24 2 1.0e-8 150 3.0e-05 3.0e-05 1e-06 1.2e-8
     25 2 1.0e-8 150 6.0e-05 1.0e-05 1e-06 1.2e-8
     26 1 1.0e-6 120 6.0e-05 3.0e-05 1e-06 1.2e-6 
     27 1 1.0e-6 120 10.0e-05 1.0e-05 1e-06 1.2e-6
     28 2 1.0e-8 150 10.0e-05 3.0e-05 1e-06 1.2e-8
     29 2 1.0e-8 150 13.0e-05 1.0e-05 1e-06 1.2e-8
     30 1 1.0e-6 120 13.0e-05 3.0e-05 1e-06 1.2e-6
     31 1 1.0e-6 120 16.0e-05 1.0e-05 1e-06 1.2e-6
     32 2 1.0e-8 150 16.0e-05 3.0e-05 1e-06 1.2e-8


 Nutrients

     1 sub l pp pp nd 1e-4 1e-4
     2 o2 l pp pp nd 1e-4 1e-4

 Type Name

     1 het
     2 eps

 Diffusion Coeffs
    
     sub 1.6e-9
     o2 2.30e-9

 Ks
     
     het 3.5e-5 0
     eps 0 0 

 Growth Rate

     het 0.00028 
     eps 0.0001

 Yield
    
     het 0.61
     eps 0.18

 Maintenance

     het 0
     eps 0

 Decay

     het 0
     eps 0



